#LAMMPS INPUT FILE

2537 atoms
2004 bonds
0 angles
0 dihedrals
0  impropers

8  atom types
2  bond types
0  angle types
0 dihedral types
0  improper types

-21.000000 69.000000 xlo xhi
-42.000000 48.000000 ylo yhi
-29.000000 61.000000 zlo zhi

Masses

1  1
2  1
3  1 
4  1
5  1
6  1
7  1
8  1

Atoms
	
1	1	1	41.56294501	13.20275494	8.152302098
2	1	1	41.84374925	12.67419415	8.953409128
3	1	2	42.28229594	12.8151198	9.840999549
4	1	1	43.03924094	12.4800038	9.279990157
5	1	1	43.82771956	12.92724302	8.857759719
6	1	2	44.5841773	12.95415708	9.51124829
7	1	1	44.52625771	12.32758706	8.734038318
8	1	1	43.90783329	11.90784793	8.069681265
9	1	1	42.91091768	11.92876833	8.145322487
10	1	1	42.96585158	12.73836972	7.560918644
11	1	1	43.14815175	13.47547331	8.211645121
12	1	2	42.73333459	12.9525646	8.956288129
13	1	1	43.43927185	13.55737836	9.324870431
14	1	1	43.95349149	13.11325609	8.591158246
15	1	1	44.05362002	12.47846539	9.357327315
16	1	2	44.56606209	12.96147091	10.0673335
17	1	1	45.15640031	13.40345116	10.74272542
18	1	1	45.86862738	14.10450867	10.70735645
19	1	1	45.45154966	13.97230789	11.60656116
20	1	2	44.93378275	13.64319803	10.81687506
21	1	1	44.331891	14.43798894	10.73919795
22	1	1	45.0197017	14.37999661	11.4627678
23	1	2	44.75915736	15.26625997	11.84572196
24	1	1	45.71862264	15.29357571	11.56522201
25	1	1	45.52845691	14.51934729	10.96156039
26	1	2	44.85161284	14.87713389	11.60488834
27	1	1	45.82075533	14.64523593	11.6884716
28	1	1	46.77860308	14.35889361	11.71161826
29	1	1	46.08985729	14.3233298	12.43574839
30	1	1	45.14974928	14.00817425	12.56564798
31	1	2	45.71691463	13.19744759	12.42057646
32	1	1	45.34205331	13.43929359	13.31555663
33	1	1	46.19028659	13.33166207	13.83412751
34	1	2	45.21940938	13.12811655	13.96048673
35	1	1	45.33163166	12.24453586	13.50585354
36	1	1	44.67809535	11.65240684	13.03439461
37	1	1	44.99706934	11.21121385	13.87320588
38	1	2	44.37466078	11.69046598	14.49201519
39	1	1	45.16465506	11.07735292	14.49320105
40	1	1	45.76919492	11.62934161	15.06751808
41	1	2	44.92351348	12.12407811	15.26766476
42	1	1	45.09146095	11.421582	14.57607756
43	1	1	45.85293686	11.45980673	15.22314271
44	1	2	45.25477391	12.24465858	15.38503363
45	1	1	45.74832294	12.36279957	16.24669021
46	1	1	44.94325762	12.90175441	15.99890499
47	1	2	45.41896018	12.10089881	15.63512294
48	1	1	45.98246055	12.68725403	16.21706356
49	1	1	46.67143722	13.37640976	15.99261865
50	1	1	45.93064566	14.02139138	16.18030609
51	1	1	45.13256744	13.59958657	15.75001332
52	1	1	44.39557692	14.22579896	15.49564546
53	1	1	44.30712024	13.84202141	16.41482456
54	1	1	44.85865505	13.91407241	17.24585886
55	1	1	44.67272406	14.6472095	16.59168788
56	1	1	43.8306248	14.51322271	17.11410186
57	1	1	43.39488122	14.74364918	16.24402647
58	1	1	42.81381398	15.1346611	15.53025442
59	1	1	41.880735	14.82740773	15.34328118
60	1	2	42.41541921	15.09557793	16.14465347
61	1	1	42.72753657	15.39050392	17.04776095
62	1	1	42.75988683	14.56811407	16.47975612
63	1	1	43.42497809	15.29198818	16.66322246
64	1	1	44.04210082	14.70522105	16.13894784
65	1	2	44.45932546	15.21615974	16.89052301
66	1	1	45.31058341	14.95853525	16.43336928
67	1	1	45.6949308	14.6558226	17.30551728
68	1	1	45.61252087	15.52671003	17.79004147
69	1	1	45.46995904	16.22508696	18.49142994
70	1	2	45.78133134	15.98449267	17.57210319
71	1	1	45.97487284	15.01652491	17.41216534
72	1	1	45.14494835	14.87158377	16.87344704
73	1	1	44.33200592	15.25325531	16.43361589
74	1	1	43.71363345	15.2239847	17.21895577
75	1	1	44.25149238	15.95355399	16.7965384
76	1	2	43.85614163	16.25221578	17.66515737
77	1	1	43.21864882	16.10316213	18.42105812
78	1	1	43.03363297	15.49327326	17.65047088
79	1	1	43.56922003	15.01715714	16.95300407
80	1	1	43.97281929	14.10381985	16.89894279
81	1	1	44.42983753	13.60609894	17.63610507
82	1	2	44.17902523	13.9894608	16.74721426
83	1	1	44.66306479	13.51510251	16.01189805
84	1	1	45.2183948	13.01864155	15.3447136
85	1	1	45.04348931	13.66955847	16.08343901
86	1	2	44.13847971	13.24417933	16.08663285
87	1	1	44.21410689	12.4631486	16.70652924
88	1	1	43.74826699	12.03857393	17.48288582
89	1	2	43.16142976	11.32374361	17.86320104
90	1	1	43.21398232	10.37524432	17.55081135
91	1	1	43.26520669	11.10294765	16.8668348
92	1	1	43.12881636	10.64957864	17.74766067
93	1	2	43.34726696	11.50496701	18.21733084
94	1	1	43.90334031	12.12522915	18.77055531
95	1	1	44.46812418	11.73946779	19.50008074
96	1	1	44.57674843	12.50719575	20.13158256
97	1	2	44.20797442	11.73831753	20.6539158
98	1	1	43.62958542	11.30125265	19.96511942
99	1	1	43.27527734	11.38175989	20.89677621
100	1	2	43.66279884	12.09616839	20.31415491
101	1	1	44.06830542	12.81183972	19.74549071
102	1	1	43.34659782	13.43278274	19.43960199
103	1	1	43.77968012	14.12342235	18.8604158
104	1	2	44.43906476	13.4700485	18.4885092
105	1	1	43.54862757	13.36703306	18.04521536
106	1	1	44.30126023	14.02526578	18.06176088
107	1	2	44.59253099	14.6775361	18.76154997
108	1	1	44.068075	13.82625727	18.77798958
109	1	1	44.42557188	14.38318423	19.52767507
110	1	2	44.23144378	13.72081576	20.25126494
111	1	1	43.7719823	12.84734824	20.09017601
112	1	2	44.10187244	12.25155131	20.82243179
113	1	1	43.79497583	12.74132658	20.00638359
114	1	1	44.50610811	13.44239255	20.05927373
115	1	2	45.18929562	13.65480892	19.36060778
116	1	1	45.17986457	12.69408203	19.08327241
117	1	1	44.22992894	12.98562692	18.97091638
118	1	2	45.1452378	12.75714585	19.30258803
119	1	1	44.520269	13.2855729	18.72797611
120	1	1	44.02562011	12.9376509	19.52438854
121	1	2	44.68989903	12.61579637	20.19903155
122	1	1	45.09731879	11.89196193	19.64218971
123	1	2	45.707513	11.995358	20.42766555
124	1	1	45.09023543	11.8508754	19.6543007
125	1	1	45.60125676	11.17108336	19.12823989
126	1	2	46.14232539	10.46115607	19.57907022
127	1	1	46.77654016	10.91426521	18.95260097
128	1	1	45.8083962	10.73840499	18.77435829
129	1	1	45.20333746	11.39003384	19.2318337
130	1	2	44.44332284	12.01980165	19.07130243
131	1	1	43.6166552	12.39459751	18.65160173
132	1	1	42.73908124	12.72095865	18.30038619
133	1	1	43.30330935	12.42243569	17.53062605
134	1	2	42.54669956	12.36004827	18.18150963
135	1	1	41.75598212	12.75904017	17.71721295
136	1	2	41.74178655	12.19036437	16.8947737
137	1	1	41.50666101	12.8664732	17.59305218
138	1	1	40.75023064	12.59553869	16.99773075
139	1	2	40.28888793	12.10942683	17.73992894
140	1	1	39.56875514	12.64144424	18.18531218
141	1	1	40.16328335	12.11411969	17.57829898
142	1	2	40.81961173	11.65166822	16.98216839
143	1	1	41.22202353	12.48223314	16.59716625
144	1	1	41.07357818	11.49434477	16.55199397
145	1	2	41.69440778	12.17743303	16.16733693
146	1	1	40.97957025	12.84488632	15.9587382
147	1	1	40.05510632	12.86855185	16.33927254
148	1	1	39.77405477	13.75591811	15.97377132
149	1	1	39.91022201	14.66918186	15.58983408
150	1	1	39.39569178	13.92056983	16.00797122
151	1	2	40.11849315	13.6730783	16.65318911
152	1	1	40.80163556	13.41685351	17.33704969
153	1	1	39.90038658	13.81227836	17.5142204
154	1	2	40.75201852	14.14962564	17.91536854
155	1	1	41.64870191	14.58702631	17.98348291
156	1	1	42.2119291	15.41330042	17.97668456
157	1	1	42.59075317	14.54488464	17.65676838
158	1	1	43.14173255	14.02092999	17.00723528
159	1	1	42.52944138	13.45771181	16.45236159
160	1	2	41.88093237	14.17463543	16.70820642
161	1	1	42.50683308	14.87598333	16.36709146
162	1	2	42.54896369	15.25453431	15.44247036
163	1	1	42.76153387	15.92361816	16.15460849
164	1	1	42.28914734	15.60106755	16.97485971
165	1	1	42.78198188	15.24474078	16.18104275
166	1	2	41.93977295	15.31526761	16.71556131
167	1	1	41.21627948	15.58812905	16.08144473
168	1	1	40.22156901	15.48983449	16.05162445
169	1	1	39.55965343	14.77533462	15.82500209
170	1	2	39.57301957	13.7948418	15.62890219
171	1	1	39.41632701	13.11296051	16.34338477
172	1	2	39.40025877	12.27542573	15.79723707
173	1	1	39.07212813	11.33266074	15.85660408
174	1	1	38.66846113	10.4347678	16.0322208
175	1	1	39.2191826	11.25614572	15.883748
176	1	2	39.73040707	10.60694826	15.32054982
177	1	1	38.74437941	10.65025735	15.15969655
178	1	1	37.99843862	9.993965112	15.27306692
179	1	2	37.55039967	9.757140014	16.13514288
180	1	1	36.83744714	9.853020444	15.44051663
181	1	1	37.11620524	10.59226021	16.053557
182	1	1	37.42419222	11.29167332	15.40860327
183	1	2	37.37410621	11.16959982	16.39985977
184	1	1	37.09280582	10.26244123	16.08691667
185	1	1	36.33592116	9.976927864	16.67480079
186	1	2	36.97082749	9.377748876	17.16252867
187	1	1	37.59323123	8.851676454	16.58299318
188	1	1	38.27824206	9.565393402	16.43681422
189	1	2	39.1168531	9.577314316	15.89221398
190	1	1	38.92179764	9.038500673	16.7117463
191	1	1	39.89530961	8.850268507	16.58196536
192	1	2	40.29447868	9.106235265	15.70154213
193	1	1	39.81395979	8.24545538	15.53373395
194	1	1	40.13588066	9.173191254	15.7226072
195	1	1	40.81674252	9.889633861	15.57049829
196	1	1	41.47793541	9.528005422	16.22780251
197	1	1	41.65121208	8.773613908	16.86094439
198	1	2	40.99551328	9.33398938	16.35494201
199	1	1	41.76693108	9.397248806	15.72176524
200	1	1	41.8441014	8.668642878	15.04119331
201	1	1	41.69400829	9.511949605	15.55724159
202	1	2	41.39486484	8.847246208	16.24184556
203	1	1	42.23132264	8.47563772	16.64464263
204	1	1	42.97574757	8.069487644	17.17461776
205	1	1	43.66112548	8.606916826	17.66596998
206	1	1	43.18167426	8.299789866	18.48804027
207	1	2	43.90536114	7.612318082	18.42754361
208	1	1	44.48583643	8.001907833	17.71251336
209	1	1	43.79217368	7.415744201	18.13113512
210	1	2	43.43669013	7.285447741	17.78872134
211	1	1	43.52876829	7.433104054	17.2739089
212	1	1	42.81939209	6.878615003	16.83879134
213	1	2	43.37155601	7.700588541	16.97834241
214	1	1	43.42304151	8.007042073	16.02785018
215	1	1	42.65304973	8.639241852	15.94161731
216	1	1	42.0293084	8.846177301	16.69535763
217	1	2	42.75803722	8.690062725	16.02858739
218	1	1	42.53509888	8.740744196	17.00210158
219	1	2	42.41630003	8.290313858	16.11722908
220	1	1	41.94838768	8.341398407	16.99952632
221	1	1	41.62527725	7.408741129	16.83905809
222	1	1	42.22638626	7.131957691	17.58876396
223	1	2	42.31878278	6.326513127	18.17418854
224	1	1	42.52395927	7.035236635	17.49919699
225	1	1	42.74933437	7.456353975	18.37775618
226	1	2	42.12526142	7.20622729	17.6375065
227	1	1	43.10137451	7.39483823	17.74534501
228	1	1	44.09795767	7.403080754	17.82752817
229	1	2	43.56035954	6.571672523	17.96805791
230	1	1	42.94757109	5.788935639	17.85936898
231	1	2	43.51928724	5.436583392	18.60030659
232	1	1	44.08942516	4.99131843	19.2907281
233	1	1	43.19753657	5.346559204	19.01083752
234	1	2	43.55803499	6.109824928	18.47467866
235	1	1	42.61170001	6.328052628	18.71306234
236	1	1	41.85988	6.512668236	18.08006649
237	1	2	41.04637391	6.094065063	17.67635965
238	1	1	41.24132521	6.996484517	18.0605902
239	1	1	41.91990862	6.274936153	18.19804021
240	1	1	41.35478695	6.486616638	18.99542899
241	1	1	41.35057752	6.058878138	19.89932171
242	1	1	42.11728651	6.449182276	20.40904712
243	1	2	42.82891931	6.58486536	19.71972219
244	1	1	43.47948494	6.215617862	19.05608023
245	1	2	43.45099448	7.211404553	18.96891855
246	1	1	43.64564614	7.53742394	18.04381202
247	1	1	44.26280963	7.826405201	17.31196569
248	1	1	43.68264325	7.594586341	16.53115393
249	1	1	42.95238317	8.071352726	16.04185441
250	1	1	42.95197193	8.65386688	16.85467486
251	1	2	42.26152618	8.844980845	16.1569929
252	1	1	42.35891382	9.551888151	15.45642333
253	1	1	42.3855062	8.793840773	16.10808047
254	1	1	42.57098971	7.828712736	15.92335435
255	1	2	42.24434047	7.934635511	14.98416286
256	1	1	41.45233093	7.934859665	14.37365419
257	1	1	41.21230142	8.711875132	14.95557583
258	1	2	41.77766278	9.531436015	15.04877717
259	1	1	40.967595	10.08870763	15.23109153
260	1	1	40.8435817	10.26671262	14.25490767
261	1	2	40.27137918	9.786427168	14.91967091
262	1	1	40.84873452	10.43760318	15.4122464
263	1	1	41.71042558	10.89866433	15.20032392
264	1	2	42.41436897	10.19295213	15.28053615
265	1	1	42.81035898	9.447463112	15.81666863
266	1	1	42.67215935	8.961916275	16.67988652
267	1	2	41.88440851	9.273243538	16.1483567
268	1	1	42.05273131	8.50212337	15.53431996
269	1	1	41.4805053	8.338167841	14.73078031
270	1	2	42.32442377	8.587152069	14.25558723
271	1	1	41.78258847	9.313236434	13.83224813
272	1	1	40.88813272	9.180699206	13.40518514
273	1	1	41.60371741	8.676066998	13.88818089
274	1	2	41.62359078	8.166909934	14.74862503
275	1	1	42.11959407	9.035171838	14.7587244
276	1	1	42.56122976	8.143061739	14.8541052
277	1	1	43.31222668	7.958345976	14.2201622
278	1	2	42.63965482	8.640691616	13.93371582
279	1	1	42.5481627	8.023880238	13.15194033
280	1	1	43.33337611	8.063051028	12.53395525
281	1	1	43.0353752	7.77153266	13.44291757
282	1	2	42.48640762	8.498761688	13.85495221
283	1	1	43.19471054	7.943560861	14.2909098
284	1	1	42.47639002	7.813711693	13.60742255
285	1	1	41.75145599	7.455023643	13.01936343
286	1	2	41.04480617	7.294183758	12.33032311
287	1	1	41.41799478	8.124220328	12.74477401
288	1	1	41.76511028	7.473911733	12.0690451
289	1	2	40.98429911	7.418214473	11.44676564
290	1	1	41.27872537	8.061477906	12.1535367
291	1	1	41.05729067	7.094180269	12.27723777
292	1	2	40.76247684	8.009732452	12.55082323
293	1	1	41.2982983	7.984918177	11.70685663
294	1	1	42.04225778	8.246234489	11.091846
295	1	2	41.1096518	8.320482432	11.44502206
296	1	1	40.58356771	8.961476693	12.00391552
297	1	1	39.84773038	8.284609057	11.98407551
298	1	2	40.62820701	8.904289643	12.06685358
299	1	1	40.07258916	8.36648293	12.70092988
300	1	1	40.72739033	7.983923741	12.04909869
301	1	2	40.64495458	7.245861286	11.37942104
302	1	1	40.8106183	6.433218382	11.93814014
303	1	1	41.2974598	5.812944399	11.32312345
304	1	1	41.05419907	6.74065561	11.60627733
305	1	2	41.76734572	6.205748508	11.15318106
306	1	1	42.43088344	5.575895785	11.55691767
307	1	1	42.27902003	6.440075245	12.03663776
308	1	2	42.88176967	5.803956547	12.51834915
309	1	1	43.58079284	5.789668182	13.23330541
310	1	2	42.99498438	5.803333068	14.04363974
311	1	1	43.24480885	6.346163808	14.84546424
312	1	1	42.52607994	6.575062147	15.50199627
313	1	1	42.63244626	5.581611129	15.54372493
314	1	2	42.00065154	5.432408983	14.78308431
315	1	1	42.64249327	6.187846328	14.91481743
316	1	2	43.15631147	5.645940794	15.5798958
317	1	1	43.84201687	4.963022718	15.83175095
318	1	1	43.26216936	4.412048118	16.4319208
319	1	2	42.56176272	4.493797145	15.7228738
320	1	1	42.5384849	3.761913974	15.04184138
321	1	1	43.07945378	4.342438145	15.65040063
322	1	2	42.14610384	4.509387686	15.96818317
323	1	1	42.82075192	5.246991758	15.99629354
324	1	1	41.88056173	5.585472156	15.95790825
325	1	2	41.70660921	4.770204299	15.40556882
326	1	1	42.61992764	4.973253886	15.05255281
327	1	1	42.73570077	4.272903169	15.75690035
328	1	2	42.1067738	4.008601383	16.48806068
329	1	1	42.96929971	4.410049606	16.79610025
330	1	1	43.60679842	4.247808387	17.54927565
331	1	1	42.82366523	3.858417327	18.03412305
332	1	2	43.37045691	4.22637923	18.7862021
333	1	1	43.96081075	4.958972253	19.12500854
334	1	2	44.46680509	4.634293919	19.9241041
335	1	1	45.11053377	5.359381454	19.67943809
336	1	1	45.91358706	5.749831428	20.12960943
337	1	1	46.24631439	6.46784556	19.51825992
338	1	2	47.01496171	6.46639422	20.15793108
339	1	1	47.12233891	7.374170555	19.75245326
340	1	1	47.49276446	6.520522408	19.38629789
341	1	2	46.6909555	6.207902473	19.89558285
342	1	1	45.92103406	5.733694583	20.32260493
343	1	1	45.3732706	6.067601083	19.55549239
344	1	2	45.02541131	5.163086123	19.30882136
345	1	1	44.87892621	5.586002164	18.41457076
346	1	1	45.52211762	5.436154404	19.16547053
347	1	2	46.05842928	5.744590885	18.37982637
348	1	1	46.20799772	6.049530598	19.32037996
349	1	1	46.46561769	5.189969663	19.7617267
350	1	2	45.80679265	4.758900408	19.14518079
351	1	1	45.66720921	5.74807833	19.1903859
352	1	1	46.37212249	6.450406314	19.09122606
353	1	2	46.60276424	5.787702872	18.37874551
354	1	1	47.09177213	5.246193488	17.69490426
355	1	1	47.71654453	4.597723447	18.12981351
356	1	2	47.68544827	3.628575524	18.3743239
357	1	1	48.25967283	3.141943651	17.71595047
358	1	2	48.24635076	2.207943748	17.35892567
359	1	1	48.50643838	1.257679701	17.53025189
360	1	1	47.57392782	0.898430463	17.56718473
361	1	1	48.21347508	0.28809849	18.03459695
362	1	2	47.83160368	0.113295608	18.94213108
363	1	1	47.57819947	0.755243581	19.66579475
364	1	1	48.3669779	1.198859836	20.09127473
365	1	2	47.61001343	1.259887405	20.74187478
366	1	1	48.34014587	1.939592714	20.67182251
367	1	1	47.80275854	2.398912377	21.3790992
368	1	2	47.37371875	2.65275919	22.2459825
369	1	1	47.82514321	3.148067989	22.98819887
370	1	1	47.06959927	2.62119991	22.59888745
371	1	2	46.58992637	2.848966503	23.44625767
372	1	1	45.93680545	2.445647287	24.08716848
373	1	1	45.21921507	1.754104494	24.16982813
374	1	1	44.46008328	1.672015589	24.81556828
375	1	1	44.68219101	2.567121649	25.20216018
376	1	2	43.9553731	3.10555516	25.6285697
377	1	1	43.31387085	2.741518058	26.30381176
378	1	1	43.28669947	2.006386487	26.98119148
379	1	1	43.74367228	2.170380701	27.85542357
380	1	2	44.04020666	2.76255346	28.60468907
381	1	1	44.48888692	3.122636343	29.42262937
382	1	2	43.77807413	2.890573041	28.75863254
383	1	1	43.16901633	2.240842654	29.21349408
384	1	1	42.89303728	1.844303727	28.33794143
385	1	2	42.64732435	2.443394541	27.57589461
386	1	1	43.04024323	1.672772045	28.07764726
387	1	2	42.57330644	1.367046643	28.90740748
388	1	1	43.25578915	0.873283709	28.36850533
389	1	1	43.97566352	0.664375167	29.03042535
390	1	2	44.29794827	1.609379107	29.08610383
391	1	1	44.17388808	2.438782148	28.54140238
392	1	1	43.19049367	2.422627934	28.36064153
393	1	2	43.02449039	1.679651502	29.00904645
394	1	1	43.07338266	0.904003611	29.63831578
395	1	2	42.50760455	0.768006124	28.82505088
396	1	1	42.62628878	0.999859037	27.85956743
397	1	1	42.74872983	0.346616086	27.11238483
398	1	2	42.79521182	0.265907932	26.11673147
399	1	1	43.48846384	0.119841453	25.4109934
400	1	1	43.77251395	0.08365685	24.45286699
401	1	2	44.24287272	0.841038865	23.99994856
402	1	1	44.46058109	0.09541852	23.37014433
403	1	1	45.07838515	0.71718765	22.88876994
404	1	2	45.58977602	1.305684693	23.51498924
405	1	1	45.8916268	0.749674688	22.74056108
406	1	1	45.76644086	0.056465944	22.03077934
407	1	2	45.73500674	0.819007509	22.67695444
408	1	1	46.45333122	1.514477506	22.6951597
409	1	1	45.65603468	0.952631654	22.47459797
410	1	2	45.33029607	1.586916154	23.17572387
411	1	1	44.77236122	0.975475722	22.61460953
412	1	2	44.21941251	1.607749768	22.07195195
413	1	1	44.73989409	0.840725514	22.44714886
414	1	2	44.67164523	1.08112871	21.47887803
415	1	1	44.2531617	0.172965393	21.48940982
416	1	1	43.62379028	0.518651194	22.18539326
417	1	1	44.17203393	1.315919171	22.43796537
418	1	1	43.6883174	0.773420433	23.12477934
419	1	1	44.08730146	1.156363046	22.29161269
420	1	2	44.61187883	0.418456773	22.71624538
421	1	1	43.77400396	0.587918718	23.23513685
422	1	1	43.95650078	1.0750977	24.08915766
423	1	1	44.20158045	1.952010561	24.5026305
424	1	1	43.5089865	2.4015934	25.06671284
425	1	1	44.3706056	2.103921909	24.65561161
426	1	2	44.38565607	2.913378489	24.06862479
427	1	1	44.04286147	3.56843521	23.39528049
428	1	1	43.15779362	4.004349882	23.5584776
429	1	1	42.60533404	4.088429593	24.38776586
430	1	1	42.95016388	4.701341887	25.0987025
431	1	1	42.22576218	5.295580134	25.44816362
432	1	2	42.6068443	5.728466688	26.26510036
433	1	1	43.48750132	6.202148343	26.25680003
434	1	2	43.02413404	6.842925491	26.86892372
435	1	1	42.28824762	6.438569703	26.32581454
436	1	2	42.97429992	6.389090077	27.05168231
437	1	1	43.55678789	5.749910088	27.55383438
438	1	1	43.85452895	5.799825828	28.50717518
439	1	1	44.33747246	6.219241669	29.27584671
440	1	1	43.64120625	6.441908094	29.95821979
441	1	1	43.67107675	5.915967243	29.10822333
442	1	2	43.75342148	6.447761124	28.26536236
443	1	1	43.78881385	6.889127121	29.16199129
444	1	1	43.54535341	6.787026811	28.19746937
445	1	2	42.80606147	6.387105284	28.73923518
446	1	1	41.94425277	6.703822885	28.34303355
447	1	1	41.50303409	7.239080747	27.6227384
448	1	2	41.65567686	6.970074242	26.67177274
449	1	1	42.01618434	7.602211238	27.35765697
450	1	2	42.53156117	7.746134366	28.20244858
451	1	1	41.89189779	6.981361242	28.27960317
452	1	1	42.03480898	7.841815834	28.7686781
453	1	2	42.61195082	7.462803675	28.04531299
454	1	1	42.03617519	7.859558228	28.76020337
455	1	1	41.46422987	7.042084149	28.8281348
456	1	2	42.2318634	7.679410915	28.76065615
457	1	1	41.59053011	8.050658679	28.08919006
458	1	1	41.03557442	8.876668249	27.99053726
459	1	1	41.00375167	8.155441083	27.29857
460	1	1	41.74540708	7.536478885	27.04004912
461	1	1	42.41744983	7.778530007	26.34021357
462	1	2	42.81348368	8.335236874	25.60998439
463	1	1	43.3766209	8.686461965	26.35799336
464	1	2	44.0909136	8.948421616	25.70902257
465	1	1	44.18191804	9.815776863	26.19832112
466	1	1	44.30170545	8.829764871	26.08242751
467	1	1	43.87879253	8.030561155	26.50953181
468	1	2	44.39287258	8.780155479	26.92646112
469	1	1	43.54035854	8.520228482	26.47296607
470	1	2	42.71231629	8.37680773	25.93095452
471	1	1	42.11544139	7.974880237	26.62535688
472	1	2	42.09486728	7.511479768	25.73944678
473	1	1	41.44920077	7.014106668	26.31887301
474	1	2	41.77318631	7.587613098	25.56646106
475	1	1	41.00684001	7.095344303	25.97923796
476	1	2	40.44298155	7.081942792	25.15347526
477	1	1	41.07931241	7.793674509	24.85595048
478	1	1	40.8828811	7.476205703	25.78365103
479	1	1	40.66532207	8.439649362	25.62730403
480	1	2	41.63541975	8.600013558	25.44511229
481	1	1	40.98548035	7.94149328	25.06573144
482	1	2	41.18114714	8.834978548	24.66150554
483	1	1	42.00319512	8.265717829	24.64811305
484	1	1	41.84366999	9.097999463	25.17901701
485	1	2	41.6584872	9.728696596	24.42540672
486	1	1	41.71002399	10.48332439	25.07953275
487	1	1	42.3295923	11.06565912	25.60586095
488	1	2	42.89441559	11.89067691	25.58796416
489	1	1	41.92158493	11.88691608	25.81945144
490	1	1	41.77056559	11.50833241	26.73261494
491	1	2	41.46802053	10.55807217	26.65864226
492	1	1	40.55474149	10.60499592	26.25401954
493	1	1	40.49547828	10.49716282	27.24642062
494	1	2	40.4528278	9.666149774	26.6918052
495	1	1	41.12315504	9.198674521	26.11549949
496	1	1	40.34510274	9.826864976	26.11212751
497	1	2	39.73626434	9.722939897	26.898585
498	1	1	39.799944	9.963073264	25.92993601
499	1	1	40.26547616	9.261136667	25.39089536
500	1	2	40.52268551	8.545602122	24.74139273
501	1	1	40.1411999	7.65388347	24.98492215
502	1	1	39.24316873	7.508846926	25.40025865
503	1	1	39.75558652	6.722539733	25.05507898
504	1	2	40.38478121	7.474503808	25.25171082
505	1	1	40.46903298	7.956576171	24.37963979
506	1	2	40.47179735	7.87698726	23.38281585
507	1	1	39.64186839	7.624230504	22.88549106
508	1	1	40.16147468	6.86415526	23.27574089
509	1	1	40.94083693	6.248250839	23.3908766
510	1	1	41.6075039	6.007022306	22.68563626
511	1	1	41.47261563	6.635020493	21.91920072
512	1	2	41.65465776	7.529275243	21.51033754
513	1	1	41.45484874	8.008345081	22.36507051
514	1	1	41.56900183	8.85660358	22.88220356
515	1	2	41.31344473	9.66137974	23.41795154
516	1	1	40.78712059	10.21265776	24.0653119
517	1	2	41.28675282	11.07515294	23.98487748
518	1	1	41.39564768	11.80742526	23.31262815
519	1	1	41.20613704	11.13926241	24.03210304
520	1	1	41.10470586	10.94632524	23.05614866
521	1	1	40.5186582	11.53446715	23.61349706
522	1	1	39.7962406	11.31373736	22.9582176
523	1	2	38.84651568	11.09940064	23.18643319
524	1	1	39.36796753	10.40469822	23.68188906
525	1	1	38.83801256	9.946019938	22.96861356
526	1	2	39.59582662	10.59040629	23.07100536
527	1	1	38.99182318	10.2792526	23.80473776
528	1	2	39.42309524	9.616821738	23.1922104
529	1	1	39.17565312	10.28948429	23.88956073
530	1	1	38.44867297	9.606764621	23.81611888
531	1	2	38.56541507	8.663428705	24.12674507
532	1	1	37.88815598	8.042947568	23.73136768
533	1	2	38.50884218	7.780647444	22.99248521
534	1	1	38.23455975	8.704728475	22.72632097
535	1	1	37.57131683	9.274001585	23.21215731
536	1	2	37.05684878	9.266841072	22.35467766
537	1	1	37.37006223	8.435535149	21.89551777
538	1	1	36.92765062	8.53901996	21.00469631
539	1	2	36.80008156	8.877718579	20.07248959
540	1	1	36.95357091	8.67405388	19.10555541
541	1	2	36.73014367	9.452925733	19.69159202
542	1	1	36.79046847	10.37365904	19.30609093
543	1	1	36.81633716	9.970283482	18.39142216
544	1	2	36.76593717	9.591857727	17.46716365
545	1	1	36.72412784	9.38218995	18.44404205
546	1	2	36.55440903	8.610884583	17.83062249
547	1	1	37.50944461	8.430407544	18.06585658
548	1	1	36.76358691	7.921470621	17.63611306
549	1	2	36.96876135	8.763445973	17.13713315
550	1	1	36.15097019	9.313911526	17.30507747
551	1	2	35.36842937	9.789962408	16.90382265
552	1	1	34.72755585	9.248979689	16.35919541
553	1	1	34.88195009	8.730399837	15.51822136
554	1	2	35.3048073	8.267099431	14.73941168
555	1	1	35.9712684	8.156455706	14.00212777
556	1	2	36.76352427	8.599948402	13.5830277
557	1	1	36.06836147	7.939655149	13.29884203
558	1	1	35.4484903	7.323004552	12.81355678
559	1	2	35.77612872	7.136661619	11.88731201
560	1	1	35.03308768	7.54907089	12.41438753
561	1	2	34.15109816	7.364208207	12.84788524
562	1	1	34.59691945	7.282311205	11.95651761
563	1	1	33.89873023	7.533631218	12.62686831
564	1	2	34.64029181	8.04079702	13.06603717
565	1	1	35.39651529	8.694980329	13.07908466
566	1	2	35.10369213	9.079684162	12.20372328
567	1	1	34.68387606	9.72590991	11.56642684
568	1	2	35.29590454	10.20226365	12.19770194
569	1	1	35.80714083	9.358464737	12.03448171
570	1	2	36.77236124	9.577271947	11.89139792
571	1	1	37.44224067	9.103716641	12.46324311
572	1	1	37.42166153	9.863143787	13.11350991
573	1	2	38.1003778	10.12562771	13.79940087
574	1	1	37.56961074	10.41926104	13.00437521
575	1	1	37.47206863	10.33940184	12.01235301
576	1	2	38.25630842	10.43877743	12.62480091
577	1	1	37.43748171	10.18059807	13.13750573
578	1	1	36.9893674	9.296786992	13.27193614
579	1	2	37.6578816	10.03594565	13.1898798
580	1	1	38.07776944	9.432911575	12.51161429
581	1	1	37.36535333	9.350871963	13.20855962
582	1	2	37.84267831	8.542456665	12.86413898
583	1	1	38.37033269	9.19089823	13.41286878
584	1	1	38.02908859	8.936080919	14.31764532
585	1	2	38.20778076	7.954670276	14.2476292
586	1	1	38.87163003	7.39162488	14.73985275
587	1	1	39.39306951	6.731417863	14.19927199
588	1	2	39.59735619	5.854812467	14.63496675
589	1	1	40.36750159	6.373736801	14.26403063
590	1	1	40.62172325	7.015052111	14.98796849
591	1	2	40.17215836	6.474850206	14.27658019
592	1	1	39.68567308	7.178875056	13.75920114
593	1	2	40.37052419	7.833195293	13.43850815
594	1	1	40.96402952	7.746831586	12.63832522
595	1	1	41.5816411	6.963924816	12.56340575
596	1	1	41.16713398	7.070151819	11.65958073
597	1	1	41.74705903	6.991644178	12.47045895
598	1	2	40.88321676	6.804599206	12.93820962
599	1	1	41.35848603	7.647708102	13.18977772
600	1	1	40.53922195	8.108336735	13.5312856
601	1	2	39.95437233	8.646057158	12.92399024
602	1	1	40.24561001	9.072896998	13.78013763
603	1	2	40.75451515	9.929296967	13.86728493
604	1	1	39.90269911	9.617098252	14.28792895
605	1	1	40.6489892	9.917440196	13.69392069
606	1	2	40.52991414	9.765918782	12.71266517
607	1	1	40.1848658	10.37598938	11.99939418
608	1	2	39.95257054	10.1699246	11.04882792
609	1	1	40.02708672	11.00217421	10.49945744
610	1	2	40.69900529	10.3910421	10.91783882
611	1	1	40.32161671	9.683722867	10.32011198
612	1	2	40.90639274	10.43403925	10.01179019
613	1	1	41.53701125	9.751744257	10.3816467
614	1	1	42.19500416	10.06612718	9.697388919
615	1	1	41.74811574	10.87356631	10.0825289
616	1	1	42.65333811	10.95912748	9.666293685
617	1	2	42.06513835	11.47838367	9.046298473
618	1	1	42.09888342	12.06153486	8.234636008
619	1	1	42.66033451	11.53606639	7.595374283
620	1	1	42.54135792	12.07859332	8.426944544
621	1	1	41.68874041	12.26951445	8.913352286
622	1	2	40.75466255	12.62422319	8.872361293
623	1	1	41.405264	13.30490068	9.209104382
624	1	1	41.75351998	13.96567532	9.874006364
625	1	2	40.99498047	13.39930619	10.19625445
626	1	1	41.36253771	12.68445017	9.601374174
627	1	2	40.77885275	12.04274812	9.103849953
628	1	1	40.75663907	11.21263374	8.546699458
629	1	1	41.55255451	10.81266308	9.001168474
630	1	1	42.18548819	11.41154964	8.510526207
631	1	1	42.58436323	10.74729434	9.142715726
632	1	2	43.12032829	9.903560773	9.171958371
633	1	1	43.69309185	9.083859693	9.166298685
634	1	1	44.37681062	9.811675252	9.219337967
635	1	2	44.28904259	9.166807515	8.460099945
636	1	1	44.74745222	8.776010028	7.661890738
637	1	2	44.17354949	8.00749642	7.379008258
638	1	1	43.87648954	7.052750914	7.364297586
639	1	1	44.18507409	8.000089166	7.449888555
640	1	2	45.1180578	7.817981036	7.139440458
641	1	1	45.66064153	7.199691226	7.708053339
642	1	1	44.70591473	7.486039364	7.627421545
643	1	1	45.22255142	6.631529859	7.68127358
644	1	2	45.54944596	7.167805207	8.459443683
645	1	1	46.16438001	7.718602764	9.023782381
646	1	2	46.58476576	7.786492694	9.928584445
647	1	1	46.77369662	7.543051642	10.87992118
648	1	1	47.03870293	8.423663349	10.48711757
649	1	1	47.91652833	8.122761512	10.11445062
650	1	1	47.1365105	7.56062835	9.83953517
651	1	1	47.40903129	6.89856133	10.53767533
652	1	2	46.49271642	6.500278721	10.49598572
653	1	1	45.81776644	7.007291533	9.959906874
654	1	1	46.8085807	7.006586708	9.824678959
655	1	1	47.51661466	7.604933374	10.19973787
656	1	2	46.70173818	7.159700253	9.828599374
657	1	1	47.65495607	7.420743473	9.981020118
658	1	1	47.4127717	8.342116836	10.28502317
659	1	2	47.84812217	9.240454726	10.22620989
660	1	1	48.24129177	9.976233556	9.674805163
661	1	2	48.67193382	9.639744298	8.837355218
662	1	1	48.06875223	9.983051711	9.557294102
663	1	1	47.98492056	10.72630395	8.893555933
664	1	2	48.4036519	9.839551951	8.697762783
665	1	1	49.09592863	9.321560452	9.200194603
666	1	2	49.69020617	9.885069711	9.774033884
667	1	1	49.84342427	8.907162443	9.631831254
668	1	1	50.08827833	9.823594177	9.948374087
669	1	1	49.51850789	9.003661875	9.892942503
670	1	1	50.15050603	8.39535102	10.37308442
671	1	1	50.8011373	7.692485815	10.08557886
672	1	2	50.46434555	6.984485727	10.70631003
673	1	1	49.76440402	7.584900964	11.09307016
674	1	1	49.13547685	7.255201992	10.38897557
675	1	1	48.19807005	7.601020922	10.42993608
676	1	2	48.60079841	7.71589951	11.338018
677	1	1	47.93765939	8.37026568	11.70140698
678	1	2	47.62181002	7.437059029	11.87276777
679	1	1	47.09434696	6.589842155	11.93606305
680	1	1	47.70110941	6.07672705	12.54314807
681	1	1	46.83365189	6.194799746	12.05985075
682	1	2	47.32703465	5.562950179	11.46207188